 # Voronoi polycrystal with 1 grains
 
        4025  atoms
           2  atom types
 
      0.00000000      63.15871343  xlo xhi
      0.00000000      62.39081005  ylo yhi
      0.00000000      49.56807175  zlo zhi
 
Masses
 
           1   15.99900000    # O 
           2   65.38000000    # Zn
 
Atoms # charge
 
         1    1     -2.0   6.53464018      -0.25266546       9.74642101
         2    1     -2.0   3.57233820       0.28098951      10.94541200
         3    1     -2.0   0.61003623       0.81464448      12.14440299
         4    1     -2.0   0.97872303       0.05184451       9.01713481
         5    2     2.0   8.44054278       0.27657488       9.84202414
         6    1     -2.0   8.60233343       2.16880585       9.39954733
         7    2     2.0   6.43560445       3.66385280      12.13622783
         8    1     -2.0   6.59739510       5.55608378      11.69375102
         9    2     2.0   5.47824081       0.81022985      11.04101513
        10    2     2.0   6.80429125       2.90105283       9.00895966
        11    1     -2.0   5.64003145       2.70246082      10.59853832
        12    1     -2.0   6.96608190       4.79328381       8.56648285
        13    2     2.0   5.84692761       0.04742988       7.91374695
        14    2     2.0   7.17297806       2.13825286       5.88169148
        15    1     -2.0   6.00871825       1.93966085       7.47127014
        16    1     -2.0   7.33476870       4.03048384       5.43921467
        17    2     2.0   7.54166486       1.37545289       2.75442330
        18    1     -2.0   6.37740506       1.17686088       4.34400196
        19    2     2.0   2.51593883       1.34388482      12.24000612
        20    2     2.0   3.84198928       3.43470780      10.20795065
        21    1     -2.0   2.67772948       3.23611579      11.79752931
        22    1     -2.0   4.00377992       5.32693878       9.76547383
        23    2     2.0   2.88462563       0.58108485       9.11273794
        24    2     2.0   4.21067608       2.67190783       7.08068247
        25    1     -2.0   3.04641628       2.47331582       8.67026113
        26    1     -2.0   4.37246673       4.56413881       6.63820566
        27    2     2.0   3.25331244      -0.18171512       5.98546977
        28    2     2.0   4.57936288       1.90910786       3.95341429
        29    1     -2.0   3.41510308       1.71051585       5.54299295
        30    1     -2.0   4.74115353       3.80133884       3.51093748
        31    2     2.0   0.87968730       3.96836277      11.40694164
        32    1     -2.0   1.04147795       5.86059375      10.96446482
        33    2     2.0  -0.07767634       1.11473982      10.31172893
        34    2     2.0   1.24837411       3.20556280       8.27967346
        35    1     -2.0   0.08411430       3.00697079       9.86925212
        36    1     -2.0   1.41016475       5.09779378       7.83719665
        37    2     2.0   0.29101046       0.35193985       7.18446075
        38    2     2.0   1.61706091       2.44276283       5.15240528
        39    1     -2.0   0.45280111       2.24417082       6.74198394
        40    1     -2.0   1.77885155       4.33499381       4.70992847
        41    2     2.0   0.65969726      -0.41086012       4.05719258
        42    1     -2.0   0.82148791       1.48137085       3.61471577
        43    1     -2.0  -1.18345042       4.86864877       5.90891946
        44    2     2.0  -0.97655427       2.21361783       3.22412809
        45    1     -2.0  -0.81476362       4.10584880       2.78165128
        46    2     2.0   8.50329770       6.08532411      11.78935415
        47    1     -2.0   8.66508835       7.97755509      11.34687734
        48    2     2.0   6.86704617       8.70980207      10.95628967
        49    2     2.0   5.90968253       5.85617911       9.86107696
        50    2     2.0   7.23573298       7.94700210       7.82902149
        51    1     -2.0   6.07147318       7.74841009       9.41860015
        52    2     2.0   6.27836933       5.09337914       6.73380879
        53    2     2.0   7.60441978       7.18420213       4.70175331
        54    1     -2.0   6.44015998       6.98561012       6.29133198
        55    1     -2.0   7.76621043       9.07643310       4.25927650
        56    2     2.0   6.64705613       4.33057917       3.60654061
        57    1     -2.0   6.80884678       6.22281015       3.16406380
        58    2     2.0   3.90474420       9.24345704      12.15528066
        59    2     2.0   2.94738055       6.38983408      11.06006795
        60    2     2.0   4.27343100       8.48065707       9.02801248
        61    1     -2.0   3.10917120       8.28206505      10.61759114
        62    2     2.0   3.31606736       5.62703411       7.93279978
        63    2     2.0   4.64211780       7.71785710       5.90074430
        64    1     -2.0   3.47785800       7.51926508       7.49032296
        65    2     2.0   3.68475416       4.86423414       4.80553160
        66    2     2.0   5.01080461       6.95505713       2.77347613
        67    1     -2.0   3.84654480       6.75646511       4.36305479
        68    2     2.0  -0.01492142       6.92348905      12.25905894
        69    2     2.0   1.31112903       9.01431204      10.22700347
        70    1     -2.0   0.14686923       8.81572002      11.81658213
        71    2     2.0   0.35376538       6.16068908       9.13179077
        72    2     2.0   1.67981583       8.25151207       7.09973529
        73    1     -2.0   0.51555603       8.05292005       8.68931395
        74    2     2.0   0.72245218       5.39788911       6.00452259
        75    2     2.0   2.04850263       7.48871210       3.97246712
        76    1     -2.0   0.88424283       7.29012008       5.56204578
        77    1     -2.0   2.21029328       9.38094307       3.52999030
        78    2     2.0   1.09113899       4.63508914       2.87725441
        79    1     -2.0   1.25292963       6.52732011       2.43477760
        80    2     2.0  -0.91379934       8.02236706       5.17145811
        81    2     2.0   7.07849786       9.37652843       2.42660244
        82    1     -2.0  18.38317895      -0.25266546       9.74642101
        83    1     -2.0  15.42087697       0.28098951      10.94541200
        84    1     -2.0  12.45857500       0.81464448      12.14440299
        85    1     -2.0  12.82726180       0.05184451       9.01713481
        86    2     2.0  20.28908155       0.27657488       9.84202414
        87    1     -2.0  20.45087220       2.16880585       9.39954733
        88    2     2.0  18.28414322       3.66385280      12.13622783
        89    1     -2.0  18.44593387       5.55608378      11.69375102
        90    2     2.0  17.32677958       0.81022985      11.04101513
        91    2     2.0  18.65283002       2.90105283       9.00895966
        92    1     -2.0  17.48857022       2.70246082      10.59853832
        93    1     -2.0  18.81462067       4.79328381       8.56648285
        94    2     2.0  17.69546638       0.04742988       7.91374695
        95    2     2.0  19.02151683       2.13825286       5.88169148
        96    1     -2.0  17.85725702       1.93966085       7.47127014
        97    1     -2.0  19.18330747       4.03048384       5.43921467
        98    2     2.0  19.39020363       1.37545289       2.75442330
        99    1     -2.0  18.22594383       1.17686088       4.34400196
       100    2     2.0  14.36447760       1.34388482      12.24000612
       101    2     2.0  15.69052805       3.43470780      10.20795065
       102    1     -2.0  14.52626825       3.23611579      11.79752931
       103    1     -2.0  15.85231869       5.32693878       9.76547383
       104    2     2.0  14.73316440       0.58108485       9.11273794
       105    2     2.0  16.05921485       2.67190783       7.08068247
       106    1     -2.0  14.89495505       2.47331582       8.67026113
       107    1     -2.0  16.22100550       4.56413881       6.63820566
       108    2     2.0  15.10185121      -0.18171512       5.98546977
       109    2     2.0  16.42790165       1.90910786       3.95341429
       110    1     -2.0  15.26364185       1.71051585       5.54299295
       111    1     -2.0  16.58969230       3.80133884       3.51093748
       112    2     2.0  12.72822607       3.96836277      11.40694164
       113    1     -2.0  12.89001672       5.86059375      10.96446482
       114    2     2.0  11.77086243       1.11473982      10.31172893
       115    2     2.0  13.09691288       3.20556280       8.27967346
       116    1     -2.0  11.93265307       3.00697079       9.86925212
       117    1     -2.0  13.25870352       5.09779378       7.83719665
       118    2     2.0  12.13954923       0.35193985       7.18446075
       119    2     2.0  13.46559968       2.44276283       5.15240528
       120    1     -2.0  12.30133988       2.24417082       6.74198394
       121    1     -2.0  13.62739032       4.33499381       4.70992847
       122    2     2.0  12.50823603      -0.41086012       4.05719258
       123    1     -2.0  12.67002668       1.48137085       3.61471577
       124    1     -2.0  10.66508835       4.86864877       5.90891946
       125    2     2.0  10.87198450       2.21361783       3.22412809
       126    1     -2.0  11.03377515       4.10584880       2.78165128
       127    2     2.0  20.35183647       6.08532411      11.78935415
       128    1     -2.0  20.51362712       7.97755509      11.34687734
       129    2     2.0  18.71558494       8.70980207      10.95628967
       130    2     2.0  17.75822130       5.85617911       9.86107696
       131    2     2.0  19.08427175       7.94700210       7.82902149
       132    1     -2.0  17.92001195       7.74841009       9.41860015
       133    2     2.0  18.12690810       5.09337914       6.73380879
       134    2     2.0  19.45295855       7.18420213       4.70175331
       135    1     -2.0  18.28869875       6.98561012       6.29133198
       136    1     -2.0  19.61474920       9.07643310       4.25927650
       137    2     2.0  18.49559490       4.33057917       3.60654061
       138    1     -2.0  18.65738555       6.22281015       3.16406380
       139    2     2.0  15.75328297       9.24345704      12.15528066
       140    2     2.0  14.79591932       6.38983408      11.06006795
       141    2     2.0  16.12196977       8.48065707       9.02801248
       142    1     -2.0  14.95770997       8.28206505      10.61759114
       143    2     2.0  15.16460613       5.62703411       7.93279978
       144    2     2.0  16.49065657       7.71785710       5.90074430
       145    1     -2.0  15.32639677       7.51926508       7.49032296
       146    2     2.0  15.53329293       4.86423414       4.80553160
       147    2     2.0  16.85934338       6.95505713       2.77347613
       148    1     -2.0  15.69508357       6.75646511       4.36305479
       149    2     2.0  11.83361735       6.92348905      12.25905894
       150    2     2.0  13.15966780       9.01431204      10.22700347
       151    1     -2.0  11.99540800       8.81572002      11.81658213
       152    2     2.0  12.20230415       6.16068908       9.13179077
       153    2     2.0  13.52835460       8.25151207       7.09973529
       154    1     -2.0  12.36409480       8.05292005       8.68931395
       155    2     2.0  12.57099095       5.39788911       6.00452259
       156    2     2.0  13.89704140       7.48871210       3.97246712
       157    1     -2.0  12.73278160       7.29012008       5.56204578
       158    1     -2.0  14.05883205       9.38094307       3.52999030
       159    2     2.0  12.93967776       4.63508914       2.87725441
       160    1     -2.0  13.10146840       6.52732011       2.43477760
       161    2     2.0  10.93473943       8.02236706       5.17145811
       162    2     2.0  18.92703663       9.37652843       2.42660244
       163    1     -2.0  30.23171772      -0.25266546       9.74642101
       164    1     -2.0  27.26941574       0.28098951      10.94541200
       165    1     -2.0  24.30711377       0.81464448      12.14440299
       166    1     -2.0  24.67580057       0.05184451       9.01713481
       167    2     2.0  32.13762032       0.27657488       9.84202414
       168    1     -2.0  32.29941097       2.16880585       9.39954733
       169    2     2.0  30.13268199       3.66385280      12.13622783
       170    1     -2.0  30.29447264       5.55608378      11.69375102
       171    2     2.0  29.17531835       0.81022985      11.04101513
       172    2     2.0  30.50136879       2.90105283       9.00895966
       173    1     -2.0  29.33710899       2.70246082      10.59853832
       174    1     -2.0  30.66315944       4.79328381       8.56648285
       175    2     2.0  29.54400515       0.04742988       7.91374695
       176    2     2.0  30.87005560       2.13825286       5.88169148
       177    1     -2.0  29.70579579       1.93966085       7.47127014
       178    1     -2.0  31.03184624       4.03048384       5.43921467
       179    2     2.0  31.23874240       1.37545289       2.75442330
       180    1     -2.0  30.07448260       1.17686088       4.34400196
       181    2     2.0  26.21301637       1.34388482      12.24000612
       182    2     2.0  27.53906682       3.43470780      10.20795065
       183    1     -2.0  26.37480702       3.23611579      11.79752931
       184    1     -2.0  27.70085746       5.32693878       9.76547383
       185    2     2.0  26.58170317       0.58108485       9.11273794
       186    2     2.0  27.90775362       2.67190783       7.08068247
       187    1     -2.0  26.74349382       2.47331582       8.67026113
       188    1     -2.0  28.06954427       4.56413881       6.63820566
       189    2     2.0  26.95038998      -0.18171512       5.98546977
       190    2     2.0  28.27644042       1.90910786       3.95341429
       191    1     -2.0  27.11218062       1.71051585       5.54299295
       192    1     -2.0  28.43823107       3.80133884       3.51093748
       193    2     2.0  24.57676484       3.96836277      11.40694164
       194    1     -2.0  24.73855549       5.86059375      10.96446482
       195    2     2.0  23.61940120       1.11473982      10.31172893
       196    2     2.0  24.94545165       3.20556280       8.27967346
       197    1     -2.0  23.78119184       3.00697079       9.86925212
       198    1     -2.0  25.10724229       5.09779378       7.83719665
       199    2     2.0  23.98808800       0.35193985       7.18446075
       200    2     2.0  25.31413845       2.44276283       5.15240528
       201    1     -2.0  24.14987865       2.24417082       6.74198394
       202    1     -2.0  25.47592909       4.33499381       4.70992847
       203    2     2.0  24.35677480      -0.41086012       4.05719258
       204    1     -2.0  24.51856545       1.48137085       3.61471577
       205    1     -2.0  22.51362712       4.86864877       5.90891946
       206    2     2.0  22.72052327       2.21361783       3.22412809
       207    1     -2.0  22.88231392       4.10584880       2.78165128
       208    2     2.0  32.20037524       6.08532411      11.78935415
       209    1     -2.0  32.36216589       7.97755509      11.34687734
       210    2     2.0  30.56412371       8.70980207      10.95628967
       211    2     2.0  29.60676007       5.85617911       9.86107696
       212    2     2.0  30.93281052       7.94700210       7.82902149
       213    1     -2.0  29.76855072       7.74841009       9.41860015
       214    2     2.0  29.97544687       5.09337914       6.73380879
       215    2     2.0  31.30149732       7.18420213       4.70175331
       216    1     -2.0  30.13723752       6.98561012       6.29133198
       217    1     -2.0  31.46328797       9.07643310       4.25927650
       218    2     2.0  30.34413367       4.33057917       3.60654061
       219    1     -2.0  30.50592432       6.22281015       3.16406380
       220    2     2.0  27.60182174       9.24345704      12.15528066
       221    2     2.0  26.64445809       6.38983408      11.06006795
       222    2     2.0  27.97050854       8.48065707       9.02801248
       223    1     -2.0  26.80624874       8.28206505      10.61759114
       224    2     2.0  27.01314490       5.62703411       7.93279978
       225    2     2.0  28.33919534       7.71785710       5.90074430
       226    1     -2.0  27.17493554       7.51926508       7.49032296
       227    2     2.0  27.38183170       4.86423414       4.80553160
       228    2     2.0  28.70788215       6.95505713       2.77347613
       229    1     -2.0  27.54362234       6.75646511       4.36305479
       230    2     2.0  23.68215612       6.92348905      12.25905894
       231    2     2.0  25.00820657       9.01431204      10.22700347
       232    1     -2.0  23.84394677       8.81572002      11.81658213
       233    2     2.0  24.05084292       6.16068908       9.13179077
       234    2     2.0  25.37689337       8.25151207       7.09973529
       235    1     -2.0  24.21263357       8.05292005       8.68931395
       236    2     2.0  24.41952972       5.39788911       6.00452259
       237    2     2.0  25.74558017       7.48871210       3.97246712
       238    1     -2.0  24.58132037       7.29012008       5.56204578
       239    1     -2.0  25.90737082       9.38094307       3.52999030
       240    2     2.0  24.78821653       4.63508914       2.87725441
       241    1     -2.0  24.95000717       6.52732011       2.43477760
       242    2     2.0  22.78327820       8.02236706       5.17145811
       243    2     2.0  30.77557540       9.37652843       2.42660244
       244    1     -2.0  42.08025649      -0.25266546       9.74642101
       245    1     -2.0  39.11795451       0.28098951      10.94541200
       246    1     -2.0  36.15565254       0.81464448      12.14440299
       247    1     -2.0  36.52433934       0.05184451       9.01713481
       248    2     2.0  43.98615909       0.27657488       9.84202414
       249    1     -2.0  44.14794974       2.16880585       9.39954733
       250    2     2.0  41.98122076       3.66385280      12.13622783
       251    1     -2.0  42.14301141       5.55608378      11.69375102
       252    2     2.0  41.02385712       0.81022985      11.04101513
       253    2     2.0  42.34990756       2.90105283       9.00895966
       254    1     -2.0  41.18564776       2.70246082      10.59853832
       255    1     -2.0  42.51169821       4.79328381       8.56648285
       256    2     2.0  41.39254392       0.04742988       7.91374695
       257    2     2.0  42.71859437       2.13825286       5.88169148
       258    1     -2.0  41.55433456       1.93966085       7.47127014
       259    1     -2.0  42.88038501       4.03048384       5.43921467
       260    2     2.0  43.08728117       1.37545289       2.75442330
       261    1     -2.0  41.92302137       1.17686088       4.34400196
       262    2     2.0  38.06155514       1.34388482      12.24000612
       263    2     2.0  39.38760559       3.43470780      10.20795065
       264    1     -2.0  38.22334579       3.23611579      11.79752931
       265    1     -2.0  39.54939623       5.32693878       9.76547383
       266    2     2.0  38.43024194       0.58108485       9.11273794
       267    2     2.0  39.75629239       2.67190783       7.08068247
       268    1     -2.0  38.59203259       2.47331582       8.67026113
       269    1     -2.0  39.91808304       4.56413881       6.63820566
       270    2     2.0  38.79892875      -0.18171512       5.98546977
       271    2     2.0  40.12497919       1.90910786       3.95341429
       272    1     -2.0  38.96071939       1.71051585       5.54299295
       273    1     -2.0  40.28676984       3.80133884       3.51093748
       274    2     2.0  36.42530361       3.96836277      11.40694164
       275    1     -2.0  36.58709426       5.86059375      10.96446482
       276    2     2.0  35.46793997       1.11473982      10.31172893
       277    2     2.0  36.79399042       3.20556280       8.27967346
       278    1     -2.0  35.62973061       3.00697079       9.86925212
       279    1     -2.0  36.95578106       5.09779378       7.83719665
       280    2     2.0  35.83662677       0.35193985       7.18446075
       281    2     2.0  37.16267722       2.44276283       5.15240528
       282    1     -2.0  35.99841742       2.24417082       6.74198394
       283    1     -2.0  37.32446786       4.33499381       4.70992847
       284    2     2.0  36.20531357      -0.41086012       4.05719258
       285    1     -2.0  36.36710422       1.48137085       3.61471577
       286    1     -2.0  34.36216589       4.86864877       5.90891946
       287    2     2.0  34.56906204       2.21361783       3.22412809
       288    1     -2.0  34.73085269       4.10584880       2.78165128
       289    2     2.0  44.04891401       6.08532411      11.78935415
       290    1     -2.0  44.21070466       7.97755509      11.34687734
       291    2     2.0  42.41266248       8.70980207      10.95628967
       292    2     2.0  41.45529884       5.85617911       9.86107696
       293    2     2.0  42.78134929       7.94700210       7.82902149
       294    1     -2.0  41.61708949       7.74841009       9.41860015
       295    2     2.0  41.82398564       5.09337914       6.73380879
       296    2     2.0  43.15003609       7.18420213       4.70175331
       297    1     -2.0  41.98577629       6.98561012       6.29133198
       298    1     -2.0  43.31182674       9.07643310       4.25927650
       299    2     2.0  42.19267244       4.33057917       3.60654061
       300    1     -2.0  42.35446309       6.22281015       3.16406380
       301    2     2.0  39.45036051       9.24345704      12.15528066
       302    2     2.0  38.49299686       6.38983408      11.06006795
       303    2     2.0  39.81904731       8.48065707       9.02801248
       304    1     -2.0  38.65478751       8.28206505      10.61759114
       305    2     2.0  38.86168367       5.62703411       7.93279978
       306    2     2.0  40.18773411       7.71785710       5.90074430
       307    1     -2.0  39.02347431       7.51926508       7.49032296
       308    2     2.0  39.23037047       4.86423414       4.80553160
       309    2     2.0  40.55642092       6.95505713       2.77347613
       310    1     -2.0  39.39216111       6.75646511       4.36305479
       311    2     2.0  35.53069489       6.92348905      12.25905894
       312    2     2.0  36.85674534       9.01431204      10.22700347
       313    1     -2.0  35.69248554       8.81572002      11.81658213
       314    2     2.0  35.89938169       6.16068908       9.13179077
       315    2     2.0  37.22543214       8.25151207       7.09973529
       316    1     -2.0  36.06117234       8.05292005       8.68931395
       317    2     2.0  36.26806849       5.39788911       6.00452259
       318    2     2.0  37.59411894       7.48871210       3.97246712
       319    1     -2.0  36.42985914       7.29012008       5.56204578
       320    1     -2.0  37.75590959       9.38094307       3.52999030
       321    2     2.0  36.63675530       4.63508914       2.87725441
       322    1     -2.0  36.79854594       6.52732011       2.43477760
       323    2     2.0  34.63181697       8.02236706       5.17145811
       324    2     2.0  42.62411417       9.37652843       2.42660244
       325    1     -2.0  53.92879526      -0.25266546       9.74642101
       326    1     -2.0  50.96649328       0.28098951      10.94541200
       327    1     -2.0  48.00419131       0.81464448      12.14440299
       328    1     -2.0  48.37287811       0.05184451       9.01713481
       329    2     2.0  55.83469786       0.27657488       9.84202414
       330    1     -2.0  55.99648851       2.16880585       9.39954733
       331    2     2.0  53.82975953       3.66385280      12.13622783
       332    1     -2.0  53.99155018       5.55608378      11.69375102
       333    2     2.0  52.87239589       0.81022985      11.04101513
       334    2     2.0  54.19844633       2.90105283       9.00895966
       335    1     -2.0  53.03418653       2.70246082      10.59853832
       336    1     -2.0  54.36023698       4.79328381       8.56648285
       337    2     2.0  53.24108269       0.04742988       7.91374695
       338    2     2.0  54.56713314       2.13825286       5.88169148
       339    1     -2.0  53.40287333       1.93966085       7.47127014
       340    1     -2.0  54.72892378       4.03048384       5.43921467
       341    2     2.0  54.93581994       1.37545289       2.75442330
       342    1     -2.0  53.77156014       1.17686088       4.34400196
       343    2     2.0  49.91009391       1.34388482      12.24000612
       344    2     2.0  51.23614436       3.43470780      10.20795065
       345    1     -2.0  50.07188456       3.23611579      11.79752931
       346    1     -2.0  51.39793500       5.32693878       9.76547383
       347    2     2.0  50.27878071       0.58108485       9.11273794
       348    2     2.0  51.60483116       2.67190783       7.08068247
       349    1     -2.0  50.44057136       2.47331582       8.67026113
       350    1     -2.0  51.76662181       4.56413881       6.63820566
       351    2     2.0  50.64746752      -0.18171512       5.98546977
       352    2     2.0  51.97351796       1.90910786       3.95341429
       353    1     -2.0  50.80925816       1.71051585       5.54299295
       354    1     -2.0  52.13530861       3.80133884       3.51093748
       355    2     2.0  48.27384238       3.96836277      11.40694164
       356    1     -2.0  48.43563303       5.86059375      10.96446482
       357    2     2.0  47.31647874       1.11473982      10.31172893
       358    2     2.0  48.64252919       3.20556280       8.27967346
       359    1     -2.0  47.47826938       3.00697079       9.86925212
       360    1     -2.0  48.80431983       5.09779378       7.83719665
       361    2     2.0  47.68516554       0.35193985       7.18446075
       362    2     2.0  49.01121599       2.44276283       5.15240528
       363    1     -2.0  47.84695619       2.24417082       6.74198394
       364    1     -2.0  49.17300663       4.33499381       4.70992847
       365    2     2.0  48.05385234      -0.41086012       4.05719258
       366    1     -2.0  48.21564299       1.48137085       3.61471577
       367    1     -2.0  46.21070466       4.86864877       5.90891946
       368    2     2.0  46.41760081       2.21361783       3.22412809
       369    1     -2.0  46.57939146       4.10584880       2.78165128
       370    2     2.0  55.89745278       6.08532411      11.78935415
       371    1     -2.0  56.05924343       7.97755509      11.34687734
       372    2     2.0  54.26120125       8.70980207      10.95628967
       373    2     2.0  53.30383761       5.85617911       9.86107696
       374    2     2.0  54.62988806       7.94700210       7.82902149
       375    1     -2.0  53.46562826       7.74841009       9.41860015
       376    2     2.0  53.67252441       5.09337914       6.73380879
       377    2     2.0  54.99857486       7.18420213       4.70175331
       378    1     -2.0  53.83431506       6.98561012       6.29133198
       379    1     -2.0  55.16036551       9.07643310       4.25927650
       380    2     2.0  54.04121121       4.33057917       3.60654061
       381    1     -2.0  54.20300186       6.22281015       3.16406380
       382    2     2.0  51.29889928       9.24345704      12.15528066
       383    2     2.0  50.34153563       6.38983408      11.06006795
       384    2     2.0  51.66758608       8.48065707       9.02801248
       385    1     -2.0  50.50332628       8.28206505      10.61759114
       386    2     2.0  50.71022244       5.62703411       7.93279978
       387    2     2.0  52.03627288       7.71785710       5.90074430
       388    1     -2.0  50.87201308       7.51926508       7.49032296
       389    2     2.0  51.07890924       4.86423414       4.80553160
       390    2     2.0  52.40495969       6.95505713       2.77347613
       391    1     -2.0  51.24069988       6.75646511       4.36305479
       392    2     2.0  47.37923366       6.92348905      12.25905894
       393    2     2.0  48.70528411       9.01431204      10.22700347
       394    1     -2.0  47.54102431       8.81572002      11.81658213
       395    2     2.0  47.74792046       6.16068908       9.13179077
       396    2     2.0  49.07397091       8.25151207       7.09973529
       397    1     -2.0  47.90971111       8.05292005       8.68931395
       398    2     2.0  48.11660726       5.39788911       6.00452259
       399    2     2.0  49.44265771       7.48871210       3.97246712
       400    1     -2.0  48.27839791       7.29012008       5.56204578
       401    1     -2.0  49.60444836       9.38094307       3.52999030
       402    2     2.0  48.48529407       4.63508914       2.87725441
       403    1     -2.0  48.64708471       6.52732011       2.43477760
       404    2     2.0  46.48035574       8.02236706       5.17145811
       405    2     2.0  54.47265294       9.37652843       2.42660244
       406    1     -2.0   6.53464018      11.53913773       9.74642101
       407    1     -2.0   3.57233820      12.07279270      10.94541200
       408    1     -2.0   0.61003623      12.60644767      12.14440299
       409    1     -2.0   0.97872303      11.84364770       9.01713481
       410    2     2.0   8.44054278      12.06837807       9.84202414
       411    1     -2.0   8.60233343      13.96060904       9.39954733
       412    2     2.0   6.43560445      15.45565599      12.13622783
       413    1     -2.0   6.59739510      17.34788697      11.69375102
       414    2     2.0   5.47824081      12.60203304      11.04101513
       415    2     2.0   6.80429125      14.69285602       9.00895966