 # Bcc Fe oriented X=[121] Y=[-101] Z=[1-11].
 
           6  atoms
           2  atom types
 
      0.00000000       2.44948974  xlo xhi
      0.00000000       1.41421356  ylo yhi
      0.00000000       0.86602540  zlo zhi
 
Masses
 
           1       # Sn
           2              # O
 
Atoms # atomic
 
         1    1        0.00000000       0.00000000       0.00000000
         2    1        0.50000000       0.50000000       0.50000000
         3    2        0.30000000       0.30000000       0.00000000
         4    2        0.80000000       0.20000000       0.50000000
         5    2        0.20000000       0.80000000       0.50000000
         6    2        0.70000000       0.70000000       0.00000000
